TITLE = "  0.00000E+00 [y]"
VARIABLES="X [m]","Y [m]","Z [m]","Porosity","Total CO2(aq) [M]","Total NH4+ [M]","Total NO3- [M]","Total Tracer [M]","Total Tracer2 [M]","Total O2(aq) [M]","Total DOM1 [M]","Total Acetate- [M]","Total H2(aq) [M]","Total H+ [M]","Total Cl- [M]","Total Na+ [M]","Total SO4-- [M]","Total HS- [M]","Total H2S(aq) [M]","Total Fe+++ [M]","Total Fe++ [M]","Total CH4(aq) [M]","Free CO2(aq) [M]","Free NH4+ [M]","Free NO3- [M]","Free Tracer [M]","Free Tracer2 [M]","Free O2(aq) [M]","Free DOM1 [M]","Free Acetate- [M]","Free H2(aq) [M]","Free H+ [M]","Free Cl- [M]","Free Na+ [M]","Free SO4-- [M]","Free HS- [M]","Free H2S(aq) [M]","Free Fe+++ [M]","Free Fe++ [M]","Free CH4(aq) [M]","Active Gas CO2(g)* [Bar]","Active Gas O2(g) [Bar]","Active Gas H2S(g) [Bar]","Active Gas CH4(g) [Bar]","HCO3- [M]","CO3-- [M]","Acetic_acid(aq) [M]","OH- [M]","H2SO4(aq) [M]","HSO4- [M]","FeIIIDOM1(aq) [M]","FeIIDOM1(aq) [M]","Halite VF [m^3 mnrl/m^3 bulk]","Pyrrhotite VF [m^3 mnrl/m^3 bulk]","Pyrite VF [m^3 mnrl/m^3 bulk]","Fe(OH)3 VF [m^3 mnrl/m^3 bulk]","Goethite VF [m^3 mnrl/m^3 bulk]","Rock(s) VF [m^3 mnrl/m^3 bulk]","Halite Rate [mol/m^3/sec]","Pyrrhotite Rate [mol/m^3/sec]","Pyrite Rate [mol/m^3/sec]","Fe(OH)3 Rate [mol/m^3/sec]","Goethite Rate [mol/m^3/sec]","Rock(s) Rate [mol/m^3/sec]","Total Sorbed CO2(aq) [mol/m^3]","Total Sorbed NH4+ [mol/m^3]","Total Sorbed NO3- [mol/m^3]","Total Sorbed Tracer [mol/m^3]","Total Sorbed Tracer2 [mol/m^3]","Total Sorbed O2(aq) [mol/m^3]","Total Sorbed DOM1 [mol/m^3]","Total Sorbed Acetate- [mol/m^3]","Total Sorbed H2(aq) [mol/m^3]","Total Sorbed H+ [mol/m^3]","Total Sorbed Cl- [mol/m^3]","Total Sorbed Na+ [mol/m^3]","Total Sorbed SO4-- [mol/m^3]","Total Sorbed HS- [mol/m^3]","Total Sorbed H2S(aq) [mol/m^3]","Total Sorbed Fe+++ [mol/m^3]","Total Sorbed Fe++ [mol/m^3]","Total Sorbed CH4(aq) [mol/m^3]","Material ID"
ZONE T="0.00000E+00", STRANDID=1, SOLUTIONTIME=0.00000E+00, I=1, J=1, K=1, DATAPACKING=POINT
 5.000000E-01  5.000000E-01  5.000000E+00  2.500000E-01  4.000000E-04  1.000000E-30  1.000000E-30  1.000000E-30  1.000000E-30  2.000000E-01  8.325701E-32  8.325701E-32  1.000000E-30  9.898865E-07  1.561338E-11  1.561338E-11  1.723060E-45  5.608000E-05  1.000000E-08  3.423734E-18  3.000000E-05  1.900000E-06  4.000000E-04  1.000000E-30  1.000000E-30  1.000000E-30  1.000000E-30  2.000000E-01  8.323204E-32  8.325701E-32  1.000000E-30  1.000000E-06  1.561338E-11  1.561338E-11  1.722896E-45  5.608000E-05  1.000000E-08  3.423734E-18  3.000000E-05  1.900000E-06  0.000000E+00  0.000000E+00  0.000000E+00  0.000000E+00  0.000000E+00  0.000000E+00  0.000000E+00  1.011347E-08  1.641946E-58  1.641946E-49  2.849644E-44  2.496961E-35  0.000000E+00  0.000000E+00  0.000000E+00  0.000000E+00  1.000000E-02  2.500000E-01  0.000000E+00  0.000000E+00  0.000000E+00  0.000000E+00  0.000000E+00  0.000000E+00  0.000000E+00  0.000000E+00  0.000000E+00  0.000000E+00  0.000000E+00  0.000000E+00  0.000000E+00  0.000000E+00  0.000000E+00  3.367864E-01  0.000000E+00  0.000000E+00  0.000000E+00  0.000000E+00  0.000000E+00  0.000000E+00  0.000000E+00  0.000000E+00    1 
